# vtk DataFile Version 4.0
Cook's membrane problem
ASCII
DATASET UNSTRUCTURED_GRID
POINTS 8421 double
0.0 0.0 0.0
0.0 0.25 0.0
0.0 0.5 0.0
0.0 0.75 0.0
0.0 1.0 0.0
0.0 1.25 0.0
0.0 1.5 0.0
0.0 1.75 0.0
0.0 2.0 0.0
0.0 2.25 0.0
0.0 2.5 0.0
0.0 2.75 0.0
0.0 3.0 0.0
0.0 3.25 0.0
0.0 3.5 0.0
0.0 3.75 0.0
0.0 4.0 0.0
0.0 4.25 0.0
0.0 4.5 0.0
0.0 4.75 0.0
0.0 5.0 0.0
0.25 0.0 0.0
0.25 0.25 0.0
0.25 0.5 0.0
0.25 0.75 0.0
0.25 1.0 0.0
0.25 1.25 0.0
0.25 1.5 0.0
0.25 1.75 0.0
0.25 2.0 0.0
0.25 2.25 0.0
0.25 2.5 0.0
0.25 2.75 0.0
0.25 3.0 0.0
0.25 3.25 0.0
0.25 3.5 0.0
0.25 3.75 0.0
0.25 4.0 0.0
0.25 4.25 0.0
0.25 4.5 0.0
0.25 4.75 0.0
0.25 5.0 0.0
0.5 0.0 0.0
0.5 0.25 0.0
0.5 0.5 0.0
0.5 0.75 0.0
0.5 1.0 0.0
0.5 1.25 0.0
0.5 1.5 0.0
0.5 1.75 0.0
0.5 2.0 0.0
0.5 2.25 0.0
0.5 2.5 0.0
0.5 2.75 0.0
0.5 3.0 0.0
0.5 3.25 0.0
0.5 3.5 0.0
0.5 3.75 0.0
0.5 4.0 0.0
0.5 4.25 0.0
0.5 4.5 0.0
0.5 4.75 0.0
0.5 5.0 0.0
0.75 0.0 0.0
0.75 0.25 0.0
0.75 0.5 0.0
0.75 0.75 0.0
0.75 1.0 0.0
0.75 1.25 0.0
0.75 1.5 0.0
0.75 1.75 0.0
0.75 2.0 0.0
0.75 2.25 0.0
0.75 2.5 0.0
0.75 2.75 0.0
0.75 3.0 0.0
0.75 3.25 0.0
0.75 3.5 0.0
0.75 3.75 0.0
0.75 4.0 0.0
0.75 4.25 0.0
0.75 4.5 0.0
0.75 4.75 0.0
0.75 5.0 0.0
1.0 0.0 0.0
1.0 0.25 0.0
1.0 0.5 0.0
1.0 0.75 0.0
1.0 1.0 0.0
1.0 1.25 0.0
1.0 1.5 0.0
1.0 1.75 0.0
1.0 2.0 0.0
1.0 2.25 0.0
1.0 2.5 0.0
1.0 2.75 0.0
1.0 3.0 0.0
1.0 3.25 0.0
1.0 3.5 0.0
1.0 3.75 0.0
1.0 4.0 0.0
1.0 4.25 0.0
1.0 4.5 0.0
1.0 4.75 0.0
1.0 5.0 0.0
1.25 0.0 0.0
1.25 0.25 0.0
1.25 0.5 0.0
1.25 0.75 0.0
1.25 1.0 0.0
1.25 1.25 0.0
1.25 1.5 0.0
1.25 1.75 0.0
1.25 2.0 0.0
1.25 2.25 0.0
1.25 2.5 0.0
1.25 2.75 0.0
1.25 3.0 0.0
1.25 3.25 0.0
1.25 3.5 0.0
1.25 3.75 0.0
1.25 4.0 0.0
1.25 4.25 0.0
1.25 4.5 0.0
1.25 4.75 0.0
1.25 5.0 0.0
1.5 0.0 0.0
1.5 0.25 0.0
1.5 0.5 0.0
1.5 0.75 0.0
1.5 1.0 0.0
1.5 1.25 0.0
1.5 1.5 0.0
1.5 1.75 0.0
1.5 2.0 0.0
1.5 2.25 0.0
1.5 2.5 0.0
1.5 2.75 0.0
1.5 3.0 0.0
1.5 3.25 0.0
1.5 3.5 0.0
1.5 3.75 0.0
1.5 4.0 0.0
1.5 4.25 0.0
1.5 4.5 0.0
1.5 4.75 0.0
1.5 5.0 0.0
1.75 0.0 0.0
1.75 0.25 0.0
1.75 0.5 0.0
1.75 0.75 0.0
1.75 1.0 0.0
1.75 1.25 0.0
1.75 1.5 0.0
1.75 1.75 0.0
1.75 2.0 0.0
1.75 2.25 0.0
1.75 2.5 0.0
1.75 2.75 0.0
1.75 3.0 0.0
1.75 3.25 0.0
1.75 3.5 0.0
1.75 3.75 0.0
1.75 4.0 0.0
1.75 4.25 0.0
1.75 4.5 0.0
1.75 4.75 0.0
1.75 5.0 0.0
2.0 0.0 0.0
2.0 0.25 0.0
2.0 0.5 0.0
2.0 0.75 0.0
2.0 1.0 0.0
2.0 1.25 0.0
2.0 1.5 0.0
2.0 1.75 0.0
2.0 2.0 0.0
2.0 2.25 0.0
2.0 2.5 0.0
2.0 2.75 0.0
2.0 3.0 0.0
2.0 3.25 0.0
2.0 3.5 0.0
2.0 3.75 0.0
2.0 4.0 0.0
2.0 4.25 0.0
2.0 4.5 0.0
2.0 4.75 0.0
2.0 5.0 0.0
2.25 0.0 0.0
2.25 0.25 0.0
2.25 0.5 0.0
2.25 0.75 0.0
2.25 1.0 0.0
2.25 1.25 0.0
2.25 1.5 0.0
2.25 1.75 0.0
2.25 2.0 0.0
2.25 2.25 0.0
2.25 2.5 0.0
2.25 2.75 0.0
2.25 3.0 0.0
2.25 3.25 0.0
2.25 3.5 0.0
2.25 3.75 0.0
2.25 4.0 0.0
2.25 4.25 0.0
2.25 4.5 0.0
2.25 4.75 0.0
2.25 5.0 0.0
2.5 0.0 0.0
2.5 0.25 0.0
2.5 0.5 0.0
2.5 0.75 0.0
2.5 1.0 0.0
2.5 1.25 0.0
2.5 1.5 0.0
2.5 1.75 0.0
2.5 2.0 0.0
2.5 2.25 0.0
2.5 2.5 0.0
2.5 2.75 0.0
2.5 3.0 0.0
2.5 3.25 0.0
2.5 3.5 0.0
2.5 3.75 0.0
2.5 4.0 0.0
2.5 4.25 0.0
2.5 4.5 0.0
2.5 4.75 0.0
2.5 5.0 0.0
2.75 0.0 0.0
2.75 0.25 0.0
2.75 0.5 0.0
2.75 0.75 0.0
2.75 1.0 0.0
2.75 1.25 0.0
2.75 1.5 0.0
2.75 1.75 0.0
2.75 2.0 0.0
2.75 2.25 0.0
2.75 2.5 0.0
2.75 2.75 0.0
2.75 3.0 0.0
2.75 3.25 0.0
2.75 3.5 0.0
2.75 3.75 0.0
2.75 4.0 0.0
2.75 4.25 0.0
2.75 4.5 0.0
2.75 4.75 0.0
2.75 5.0 0.0
3.0 0.0 0.0
3.0 0.25 0.0
3.0 0.5 0.0
3.0 0.75 0.0
3.0 1.0 0.0
3.0 1.25 0.0
3.0 1.5 0.0
3.0 1.75 0.0
3.0 2.0 0.0
3.0 2.25 0.0
3.0 2.5 0.0
3.0 2.75 0.0
3.0 3.0 0.0
3.0 3.25 0.0
3.0 3.5 0.0
3.0 3.75 0.0
3.0 4.0 0.0
3.0 4.25 0.0
3.0 4.5 0.0
3.0 4.75 0.0
3.0 5.0 0.0
3.25 0.0 0.0
3.25 0.25 0.0
3.25 0.5 0.0
3.25 0.75 0.0
3.25 1.0 0.0
3.25 1.25 0.0
3.25 1.5 0.0
3.25 1.75 0.0
3.25 2.0 0.0
3.25 2.25 0.0
3.25 2.5 0.0
3.25 2.75 0.0
3.25 3.0 0.0
3.25 3.25 0.0
3.25 3.5 0.0
3.25 3.75 0.0
3.25 4.0 0.0
3.25 4.25 0.0
3.25 4.5 0.0
3.25 4.75 0.0
3.25 5.0 0.0
3.5 0.0 0.0
3.5 0.25 0.0
3.5 0.5 0.0
3.5 0.75 0.0
3.5 1.0 0.0
3.5 1.25 0.0
3.5 1.5 0.0
3.5 1.75 0.0
3.5 2.0 0.0
3.5 2.25 0.0
3.5 2.5 0.0
3.5 2.75 0.0
3.5 3.0 0.0
3.5 3.25 0.0
3.5 3.5 0.0
3.5 3.75 0.0
3.5 4.0 0.0
3.5 4.25 0.0
3.5 4.5 0.0
3.5 4.75 0.0
3.5 5.0 0.0
3.75 0.0 0.0
3.75 0.25 0.0
3.75 0.5 0.0
3.75 0.75 0.0
3.75 1.0 0.0
3.75 1.25 0.0
3.75 1.5 0.0
3.75 1.75 0.0
3.75 2.0 0.0
3.75 2.25 0.0
3.75 2.5 0.0
3.75 2.75 0.0
3.75 3.0 0.0
3.75 3.25 0.0
3.75 3.5 0.0
3.75 3.75 0.0
3.75 4.0 0.0
3.75 4.25 0.0
3.75 4.5 0.0
3.75 4.75 0.0
3.75 5.0 0.0
4.0 0.0 0.0
4.0 0.25 0.0
4.0 0.5 0.0
4.0 0.75 0.0
4.0 1.0 0.0
4.0 1.25 0.0
4.0 1.5 0.0
4.0 1.75 0.0
4.0 2.0 0.0
4.0 2.25 0.0
4.0 2.5 0.0
4.0 2.75 0.0
4.0 3.0 0.0
4.0 3.25 0.0
4.0 3.5 0.0
4.0 3.75 0.0
4.0 4.0 0.0
4.0 4.25 0.0
4.0 4.5 0.0
4.0 4.75 0.0
4.0 5.0 0.0
4.25 0.0 0.0
4.25 0.25 0.0
4.25 0.5 0.0
4.25 0.75 0.0
4.25 1.0 0.0
4.25 1.25 0.0
4.25 1.5 0.0
4.25 1.75 0.0
4.25 2.0 0.0
4.25 2.25 0.0
4.25 2.5 0.0
4.25 2.75 0.0
4.25 3.0 0.0
4.25 3.25 0.0
4.25 3.5 0.0
4.25 3.75 0.0
4.25 4.0 0.0
4.25 4.25 0.0
4.25 4.5 0.0
4.25 4.75 0.0
4.25 5.0 0.0
4.5 0.0 0.0
4.5 0.25 0.0
4.5 0.5 0.0
4.5 0.75 0.0
4.5 1.0 0.0
4.5 1.25 0.0
4.5 1.5 0.0
4.5 1.75 0.0
4.5 2.0 0.0
4.5 2.25 0.0
4.5 2.5 0.0
4.5 2.75 0.0
4.5 3.0 0.0
4.5 3.25 0.0
4.5 3.5 0.0
4.5 3.75 0.0
4.5 4.0 0.0
4.5 4.25 0.0
4.5 4.5 0.0
4.5 4.75 0.0
4.5 5.0 0.0
4.75 0.0 0.0
4.75 0.25 0.0
4.75 0.5 0.0
4.75 0.75 0.0
4.75 1.0 0.0
4.75 1.25 0.0
4.75 1.5 0.0
4.75 1.75 0.0
4.75 2.0 0.0
4.75 2.25 0.0
4.75 2.5 0.0
4.75 2.75 0.0
4.75 3.0 0.0
4.75 3.25 0.0
4.75 3.5 0.0
4.75 3.75 0.0
4.75 4.0 0.0
4.75 4.25 0.0
4.75 4.5 0.0
4.75 4.75 0.0
4.75 5.0 0.0
5.0 0.0 0.0
5.0 0.25 0.0
5.0 0.5 0.0
5.0 0.75 0.0
5.0 1.0 0.0
5.0 1.25 0.0
5.0 1.5 0.0
5.0 1.75 0.0
5.0 2.0 0.0
5.0 2.25 0.0
5.0 2.5 0.0
5.0 2.75 0.0
5.0 3.0 0.0
5.0 3.25 0.0
5.0 3.5 0.0
5.0 3.75 0.0
5.0 4.0 0.0
5.0 4.25 0.0
5.0 4.5 0.0
5.0 4.75 0.0
5.0 5.0 0.0
5.25 0.0 0.0
5.25 0.25 0.0
5.25 0.5 0.0
5.25 0.75 0.0
5.25 1.0 0.0
5.25 1.25 0.0
5.25 1.5 0.0
5.25 1.75 0.0
5.25 2.0 0.0
5.25 2.25 0.0
5.25 2.5 0.0
5.25 2.75 0.0
5.25 3.0 0.0
5.25 3.25 0.0
5.25 3.5 0.0
5.25 3.75 0.0
5.25 4.0 0.0
5.25 4.25 0.0
5.25 4.5 0.0
5.25 4.75 0.0
5.25 5.0 0.0
5.5 0.0 0.0
5.5 0.25 0.0
5.5 0.5 0.0
5.5 0.75 0.0
5.5 1.0 0.0
5.5 1.25 0.0
5.5 1.5 0.0
5.5 1.75 0.0
5.5 2.0 0.0
5.5 2.25 0.0
5.5 2.5 0.0
5.5 2.75 0.0
5.5 3.0 0.0
5.5 3.25 0.0
5.5 3.5 0.0
5.5 3.75 0.0
5.5 4.0 0.0
5.5 4.25 0.0
5.5 4.5 0.0
5.5 4.75 0.0
5.5 5.0 0.0
5.75 0.0 0.0
5.75 0.25 0.0
5.75 0.5 0.0
5.75 0.75 0.0
5.75 1.0 0.0
5.75 1.25 0.0
5.75 1.5 0.0
5.75 1.75 0.0
5.75 2.0 0.0
5.75 2.25 0.0
5.75 2.5 0.0
5.75 2.75 0.0
5.75 3.0 0.0
5.75 3.25 0.0
5.75 3.5 0.0
5.75 3.75 0.0
5.75 4.0 0.0
5.75 4.25 0.0
5.75 4.5 0.0
5.75 4.75 0.0
5.75 5.0 0.0
6.0 0.0 0.0
6.0 0.25 0.0
6.0 0.5 0.0
6.0 0.75 0.0
6.0 1.0 0.0
6.0 1.25 0.0
6.0 1.5 0.0
6.0 1.75 0.0
6.0 2.0 0.0
6.0 2.25 0.0
6.0 2.5 0.0
6.0 2.75 0.0
6.0 3.0 0.0
6.0 3.25 0.0
6.0 3.5 0.0
6.0 3.75 0.0
6.0 4.0 0.0
6.0 4.25 0.0
6.0 4.5 0.0
6.0 4.75 0.0
6.0 5.0 0.0
6.25 0.0 0.0
6.25 0.25 0.0
6.25 0.5 0.0
6.25 0.75 0.0
6.25 1.0 0.0
6.25 1.25 0.0
6.25 1.5 0.0
6.25 1.75 0.0
6.25 2.0 0.0
6.25 2.25 0.0
6.25 2.5 0.0
6.25 2.75 0.0
6.25 3.0 0.0
6.25 3.25 0.0
6.25 3.5 0.0
6.25 3.75 0.0
6.25 4.0 0.0
6.25 4.25 0.0
6.25 4.5 0.0
6.25 4.75 0.0
6.25 5.0 0.0
6.5 0.0 0.0
6.5 0.25 0.0
6.5 0.5 0.0
6.5 0.75 0.0
6.5 1.0 0.0
6.5 1.25 0.0
6.5 1.5 0.0
6.5 1.75 0.0
6.5 2.0 0.0
6.5 2.25 0.0
6.5 2.5 0.0
6.5 2.75 0.0
6.5 3.0 0.0
6.5 3.25 0.0
6.5 3.5 0.0
6.5 3.75 0.0
6.5 4.0 0.0
6.5 4.25 0.0
6.5 4.5 0.0
6.5 4.75 0.0
6.5 5.0 0.0
6.75 0.0 0.0
6.75 0.25 0.0
6.75 0.5 0.0
6.75 0.75 0.0
6.75 1.0 0.0
6.75 1.25 0.0
6.75 1.5 0.0
6.75 1.75 0.0
6.75 2.0 0.0
6.75 2.25 0.0
6.75 2.5 0.0
6.75 2.75 0.0
6.75 3.0 0.0
6.75 3.25 0.0
6.75 3.5 0.0
6.75 3.75 0.0
6.75 4.0 0.0
6.75 4.25 0.0
6.75 4.5 0.0
6.75 4.75 0.0
6.75 5.0 0.0
7.0 0.0 0.0
7.0 0.25 0.0
7.0 0.5 0.0
7.0 0.75 0.0
7.0 1.0 0.0
7.0 1.25 0.0
7.0 1.5 0.0
7.0 1.75 0.0
7.0 2.0 0.0
7.0 2.25 0.0
7.0 2.5 0.0
7.0 2.75 0.0
7.0 3.0 0.0
7.0 3.25 0.0
7.0 3.5 0.0
7.0 3.75 0.0
7.0 4.0 0.0
7.0 4.25 0.0
7.0 4.5 0.0
7.0 4.75 0.0
7.0 5.0 0.0
7.25 0.0 0.0
7.25 0.25 0.0
7.25 0.5 0.0
7.25 0.75 0.0
7.25 1.0 0.0
7.25 1.25 0.0
7.25 1.5 0.0
7.25 1.75 0.0
7.25 2.0 0.0
7.25 2.25 0.0
7.25 2.5 0.0
7.25 2.75 0.0
7.25 3.0 0.0
7.25 3.25 0.0
7.25 3.5 0.0
7.25 3.75 0.0
7.25 4.0 0.0
7.25 4.25 0.0
7.25 4.5 0.0
7.25 4.75 0.0
7.25 5.0 0.0
7.5 0.0 0.0
7.5 0.25 0.0
7.5 0.5 0.0
7.5 0.75 0.0
7.5 1.0 0.0
7.5 1.25 0.0
7.5 1.5 0.0
7.5 1.75 0.0
7.5 2.0 0.0
7.5 2.25 0.0
7.5 2.5 0.0
7.5 2.75 0.0
7.5 3.0 0.0
7.5 3.25 0.0
7.5 3.5 0.0
7.5 3.75 0.0
7.5 4.0 0.0
7.5 4.25 0.0
7.5 4.5 0.0
7.5 4.75 0.0
7.5 5.0 0.0
7.75 0.0 0.0
7.75 0.25 0.0
7.75 0.5 0.0
7.75 0.75 0.0
7.75 1.0 0.0
7.75 1.25 0.0
7.75 1.5 0.0
7.75 1.75 0.0
7.75 2.0 0.0
7.75 2.25 0.0
7.75 2.5 0.0
7.75 2.75 0.0
7.75 3.0 0.0
7.75 3.25 0.0
7.75 3.5 0.0
7.75 3.75 0.0
7.75 4.0 0.0
7.75 4.25 0.0
7.75 4.5 0.0
7.75 4.75 0.0
7.75 5.0 0.0
8.0 0.0 0.0
8.0 0.25 0.0
8.0 0.5 0.0
8.0 0.75 0.0
8.0 1.0 0.0
8.0 1.25 0.0
8.0 1.5 0.0
8.0 1.75 0.0
8.0 2.0 0.0
8.0 2.25 0.0
8.0 2.5 0.0
8.0 2.75 0.0
8.0 3.0 0.0
8.0 3.25 0.0
8.0 3.5 0.0
8.0 3.75 0.0
8.0 4.0 0.0
8.0 4.25 0.0
8.0 4.5 0.0
8.0 4.75 0.0
8.0 5.0 0.0
8.25 0.0 0.0
8.25 0.25 0.0
8.25 0.5 0.0
8.25 0.75 0.0
8.25 1.0 0.0
8.25 1.25 0.0
8.25 1.5 0.0
8.25 1.75 0.0
8.25 2.0 0.0
8.25 2.25 0.0
8.25 2.5 0.0
8.25 2.75 0.0
8.25 3.0 0.0
8.25 3.25 0.0
8.25 3.5 0.0
8.25 3.75 0.0
8.25 4.0 0.0
8.25 4.25 0.0
8.25 4.5 0.0
8.25 4.75 0.0
8.25 5.0 0.0
8.5 0.0 0.0
8.5 0.25 0.0
8.5 0.5 0.0
8.5 0.75 0.0
8.5 1.0 0.0
8.5 1.25 0.0
8.5 1.5 0.0
8.5 1.75 0.0
8.5 2.0 0.0
8.5 2.25 0.0
8.5 2.5 0.0
8.5 2.75 0.0
8.5 3.0 0.0
8.5 3.25 0.0
8.5 3.5 0.0
8.5 3.75 0.0
8.5 4.0 0.0
8.5 4.25 0.0
8.5 4.5 0.0
8.5 4.75 0.0
8.5 5.0 0.0
8.75 0.0 0.0
8.75 0.25 0.0
8.75 0.5 0.0
8.75 0.75 0.0
8.75 1.0 0.0
8.75 1.25 0.0
8.75 1.5 0.0
8.75 1.75 0.0
8.75 2.0 0.0
8.75 2.25 0.0
8.75 2.5 0.0
8.75 2.75 0.0
8.75 3.0 0.0
8.75 3.25 0.0
8.75 3.5 0.0
8.75 3.75 0.0
8.75 4.0 0.0
8.75 4.25 0.0
8.75 4.5 0.0
8.75 4.75 0.0
8.75 5.0 0.0
9.0 0.0 0.0
9.0 0.25 0.0
9.0 0.5 0.0
9.0 0.75 0.0
9.0 1.0 0.0
9.0 1.25 0.0
9.0 1.5 0.0
[...]
CELL_DATA 8000
SCALARS cell_thickness float 1
LOOKUP_TABLE default
1.5612494995995996
2.6339134382131846
3.307189138830738
3.799671038392666
4.175823272122517
4.4651427748729375
4.683748498798798
4.841229182759271
4.943429983321297
4.993746088859544
4.993746088859544
4.943429983321297
4.841229182759271
4.683748498798798
4.4651427748729375
4.175823272122517
3.799671038392666
3.307189138830738
2.6339134382131846
1.5612494995995996
1.5612494995995996
2.6339134382131846
3.307189138830738
3.799671038392666
4.175823272122517
4.4651427748729375
4.683748498798798
4.841229182759271
4.943429983321297
4.993746088859544
4.993746088859544
4.943429983321297
4.841229182759271
4.683748498798798
4.4651427748729375
4.175823272122517
3.799671038392666
3.307189138830738
2.6339134382131846
1.5612494995995996
1.5612494995995996
2.6339134382131846
3.307189138830738
3.799671038392666
4.175823272122517
4.4651427748729375
4.683748498798798
4.841229182759271
4.943429983321297
4.993746088859544
4.993746088859544
4.943429983321297
4.841229182759271
4.683748498798798
4.4651427748729375
4.175823272122517
3.799671038392666
3.307189138830738
2.6339134382131846
1.5612494995995996
1.5612494995995996
2.6339134382131846
3.307189138830738
3.799671038392666
4.175823272122517
4.4651427748729375
4.683748498798798
4.841229182759271
4.943429983321297
4.993746088859544
4.993746088859544
4.943429983321297
4.841229182759271
4.683748498798798
4.4651427748729375
4.175823272122517
3.799671038392666
3.307189138830738
2.6339134382131846
1.5612494995995996
1.5612494995995996
2.6339134382131846
3.307189138830738
3.799671038392666
4.175823272122517
4.4651427748729375
4.683748498798798
4.841229182759271
4.943429983321297
4.993746088859544
4.993746088859544
4.943429983321297
4.841229182759271
4.683748498798798
4.4651427748729375
4.175823272122517
3.799671038392666
3.307189138830738
2.6339134382131846
1.5612494995995996
1.5612494995995996
2.6339134382131846
3.307189138830738
3.799671038392666
4.175823272122517
4.4651427748729375
4.683748498798798
4.841229182759271
4.943429983321297
4.993746088859544
4.993746088859544
4.943429983321297
4.841229182759271
4.683748498798798
4.4651427748729375
4.175823272122517
3.799671038392666
3.307189138830738
2.6339134382131846
1.5612494995995996
1.5612494995995996
2.6339134382131846
3.307189138830738
3.799671038392666
4.175823272122517
4.4651427748729375
4.683748498798798
4.841229182759271
4.943429983321297
4.993746088859544
4.993746088859544
4.943429983321297
4.841229182759271
4.683748498798798
4.4651427748729375
4.175823272122517
3.799671038392666
3.307189138830738
2.6339134382131846
1.5612494995995996
1.5612494995995996
2.6339134382131846
3.307189138830738
3.799671038392666
4.175823272122517
4.4651427748729375
4.683748498798798
4.841229182759271
4.943429983321297
4.993746088859544
4.993746088859544
4.943429983321297
4.841229182759271
4.683748498798798
4.4651427748729375
4.175823272122517
3.799671038392666
3.307189138830738
2.6339134382131846
1.5612494995995996
1.5612494995995996
2.6339134382131846
3.307189138830738
3.799671038392666
4.175823272122517
4.4651427748729375
4.683748498798798
4.841229182759271
4.943429983321297
4.993746088859544
4.993746088859544
4.943429983321297
4.841229182759271
4.683748498798798
4.4651427748729375
4.175823272122517
3.799671038392666
3.307189138830738
2.6339134382131846
1.5612494995995996
1.5612494995995996
2.6339134382131846
3.307189138830738
3.799671038392666
4.175823272122517
4.4651427748729375
4.683748498798798
4.841229182759271
4.943429983321297
4.993746088859544
4.993746088859544
4.943429983321297
4.841229182759271
4.683748498798798
4.4651427748729375
4.175823272122517
3.799671038392666
3.307189138830738
2.6339134382131846
1.5612494995995996
1.5612494995995996
2.6339134382131846
3.307189138830738
3.799671038392666
4.175823272122517
4.4651427748729375
4.683748498798798
4.841229182759271
4.943429983321297
4.993746088859544
4.993746088859544
4.943429983321297
4.841229182759271
4.683748498798798
4.4651427748729375
4.175823272122517
3.799671038392666
3.307189138830738
2.6339134382131846
1.5612494995995996
1.5612494995995996
2.6339134382131846
3.307189138830738
3.799671038392666
4.175823272122517
4.4651427748729375
4.683748498798798
4.841229182759271
4.943429983321297
4.993746088859544
4.993746088859544
4.943429983321297
4.841229182759271
4.683748498798798
4.4651427748729375
4.175823272122517
3.799671038392666
3.307189138830738
2.6339134382131846
1.5612494995995996
1.5612494995995996
2.6339134382131846
3.307189138830738
3.799671038392666
4.175823272122517
4.4651427748729375
4.683748498798798
4.841229182759271
4.943429983321297
4.993746088859544
4.993746088859544
4.943429983321297
4.841229182759271
4.683748498798798
4.4651427748729375
4.175823272122517
3.799671038392666
3.307189138830738
2.6339134382131846
1.5612494995995996
1.5612494995995996
2.6339134382131846
3.307189138830738
3.799671038392666
4.175823272122517
4.4651427748729375
4.683748498798798
4.841229182759271
4.943429983321297
4.993746088859544
4.993746088859544
4.943429983321297
4.841229182759271
4.683748498798798
4.4651427748729375
4.175823272122517
3.799671038392666
3.307189138830738
2.6339134382131846
1.5612494995995996
1.5612494995995996
2.6339134382131846
3.307189138830738
3.799671038392666
4.175823272122517
4.4651427748729375
4.683748498798798
4.841229182759271
4.943429983321297
4.993746088859544
4.993746088859544
4.943429983321297
4.841229182759271
4.683748498798798
4.4651427748729375
4.175823272122517
3.799671038392666
3.307189138830738
2.6339134382131846
1.5612494995995996
1.5612494995995996
2.6339134382131846
3.307189138830738
3.799671038392666
4.175823272122517
4.4651427748729375
4.683748498798798
4.841229182759271
4.943429983321297
4.993746088859544
4.993746088859544
4.943429983321297
4.841229182759271
4.683748498798798
4.4651427748729375
4.175823272122517
3.799671038392666
3.307189138830738
2.6339134382131846
1.5612494995995996
1.5612494995995996
2.6339134382131846
3.307189138830738
3.799671038392666
4.175823272122517
4.4651427748729375
4.683748498798798
4.841229182759271
4.943429983321297
4.993746088859544
4.993746088859544
4.943429983321297
4.841229182759271
4.683748498798798
4.4651427748729375
4.175823272122517
3.799671038392666
3.307189138830738
2.6339134382131846
1.5612494995995996
1.5612494995995996
2.6339134382131846
3.307189138830738
3.799671038392666
4.175823272122517
4.4651427748729375
4.683748498798798
4.841229182759271
4.943429983321297
4.993746088859544
4.993746088859544
4.943429983321297
4.841229182759271
4.683748498798798
4.4651427748729375
4.175823272122517
3.799671038392666
3.307189138830738
2.6339134382131846
1.5612494995995996
1.5612494995995996
2.6339134382131846
3.307189138830738
3.799671038392666
4.175823272122517
4.4651427748729375
4.683748498798798
4.841229182759271
4.943429983321297
4.993746088859544
4.993746088859544
4.943429983321297
4.841229182759271
4.683748498798798
4.4651427748729375
4.175823272122517
3.799671038392666
3.307189138830738
2.6339134382131846
1.5612494995995996
1.5612494995995996
2.6339134382131846
3.307189138830738
3.799671038392666
4.175823272122517
4.4651427748729375
4.683748498798798
4.841229182759271
4.943429983321297
4.993746088859544
4.993746088859544
4.943429983321297
4.841229182759271
4.683748498798798
4.4651427748729375
4.175823272122517
3.799671038392666
3.307189138830738
2.6339134382131846
1.5612494995995996
1.5612494995995996
2.6339134382131846
3.307189138830738
3.799671038392666
4.175823272122517
4.4651427748729375
4.683748498798798
4.841229182759271
4.943429983321297
4.993746088859544
4.993746088859544
4.943429983321297
4.841229182759271
4.683748498798798
4.4651427748729375
4.175823272122517
3.799671038392666
3.307189138830738
2.6339134382131846
1.5612494995995996
1.5612494995995996
2.6339134382131846
3.307189138830738
3.799671038392666
4.175823272122517
4.4651427748729375
4.683748498798798
4.841229182759271
4.943429983321297
4.993746088859544
4.993746088859544
4.943429983321297
4.841229182759271
4.683748498798798
4.4651427748729375
4.175823272122517
3.799671038392666
3.307189138830738
2.6339134382131846
1.5612494995995996
1.5612494995995996
2.6339134382131846
3.307189138830738
3.799671038392666
4.175823272122517
4.4651427748729375
4.683748498798798
4.841229182759271
4.943429983321297
4.993746088859544
4.993746088859544
4.943429983321297
4.841229182759271
4.683748498798798
4.4651427748729375
4.175823272122517
3.799671038392666
3.307189138830738
2.6339134382131846
1.5612494995995996
1.5612494995995996
2.6339134382131846
3.307189138830738
3.799671038392666
4.175823272122517
4.4651427748729375
4.683748498798798
4.841229182759271
4.943429983321297
4.993746088859544
4.993746088859544
4.943429983321297
4.841229182759271
4.683748498798798
4.4651427748729375
4.175823272122517
3.799671038392666
3.307189138830738
2.6339134382131846
1.5612494995995996
1.5612494995995996
2.6339134382131846
3.307189138830738
3.799671038392666
4.175823272122517
4.4651427748729375
4.683748498798798
4.841229182759271
4.943429983321297
4.993746088859544
4.993746088859544
4.943429983321297
4.841229182759271
4.683748498798798
4.4651427748729375
4.175823272122517
3.799671038392666
3.307189138830738
2.6339134382131846
1.5612494995995996
1.5612494995995996
2.6339134382131846
3.307189138830738
3.799671038392666
4.175823272122517
4.4651427748729375
4.683748498798798
4.841229182759271
4.943429983321297
4.993746088859544
4.993746088859544
4.943429983321297
4.841229182759271
4.683748498798798
4.4651427748729375
4.175823272122517
3.799671038392666
3.307189138830738
2.6339134382131846
1.5612494995995996
1.5612494995995996
2.6339134382131846
3.307189138830738
3.799671038392666
4.175823272122517
4.4651427748729375
4.683748498798798
4.841229182759271
4.943429983321297
4.993746088859544
4.993746088859544
4.943429983321297
4.841229182759271
4.683748498798798
4.4651427748729375
4.175823272122517
3.799671038392666
3.307189138830738
2.6339134382131846
1.5612494995995996
1.5612494995995996
2.6339134382131846
3.307189138830738
3.799671038392666
4.175823272122517
4.4651427748729375
4.683748498798798
4.841229182759271
4.943429983321297
4.993746088859544
4.993746088859544
4.943429983321297
4.841229182759271
4.683748498798798
4.4651427748729375
4.175823272122517
3.799671038392666
3.307189138830738
2.6339134382131846
1.5612494995995996
1.5612494995995996
2.6339134382131846
3.307189138830738
3.799671038392666
4.175823272122517
4.4651427748729375
4.683748498798798
4.841229182759271
4.943429983321297
4.993746088859544
4.993746088859544
4.943429983321297
4.841229182759271
4.683748498798798
4.4651427748729375
4.175823272122517
3.799671038392666
3.307189138830738
2.6339134382131846
1.5612494995995996
1.5612494995995996
2.6339134382131846
3.307189138830738
3.799671038392666
4.175823272122517
4.4651427748729375
4.683748498798798
4.841229182759271
4.943429983321297
4.993746088859544
4.993746088859544
4.943429983321297
4.841229182759271
4.683748498798798
4.4651427748729375
4.175823272122517
3.799671038392666
3.307189138830738
2.6339134382131846
1.5612494995995996
1.5612494995995996
2.6339134382131846
3.307189138830738
3.799671038392666
4.175823272122517
4.4651427748729375
4.683748498798798
4.841229182759271
4.943429983321297
4.993746088859544
4.993746088859544
4.943429983321297
4.841229182759271
4.683748498798798
4.4651427748729375
4.175823272122517
3.799671038392666
3.307189138830738
2.6339134382131846
1.5612494995995996
1.5612494995995996
2.6339134382131846
3.307189138830738
3.799671038392666
4.175823272122517
4.4651427748729375
4.683748498798798
4.841229182759271
4.943429983321297
4.993746088859544
4.993746088859544
4.943429983321297
4.841229182759271
4.683748498798798
4.4651427748729375
4.175823272122517
3.799671038392666
3.307189138830738
2.6339134382131846
1.5612494995995996
1.5612494995995996
2.6339134382131846
3.307189138830738
3.799671038392666
4.175823272122517
4.4651427748729375
4.683748498798798
4.841229182759271
4.943429983321297
4.993746088859544
4.993746088859544
4.943429983321297
4.841229182759271
4.683748498798798
4.4651427748729375
4.175823272122517
3.799671038392666
3.307189138830738
2.6339134382131846
1.5612494995995996
1.5612494995995996
2.6339134382131846
3.307189138830738
3.799671038392666
4.175823272122517
4.4651427748729375
4.683748498798798
4.841229182759271
4.943429983321297
4.993746088859544
4.993746088859544
4.943429983321297
4.841229182759271
4.683748498798798
4.4651427748729375
4.175823272122517
3.799671038392666
3.307189138830738
2.6339134382131846
1.5612494995995996
1.5612494995995996
2.6339134382131846
3.307189138830738
3.799671038392666
4.175823272122517
4.4651427748729375
4.683748498798798
4.841229182759271
4.943429983321297
4.993746088859544
4.993746088859544
4.943429983321297
4.841229182759271
4.683748498798798
4.4651427748729375
4.175823272122517
3.799671038392666
3.307189138830738
2.6339134382131846
1.5612494995995996
1.5612494995995996
2.6339134382131846
3.307189138830738
3.799671038392666
4.175823272122517
4.4651427748729375
4.683748498798798
4.841229182759271
4.943429983321297
4.993746088859544
4.993746088859544
4.943429983321297
4.841229182759271
4.683748498798798
4.4651427748729375
4.175823272122517
3.799671038392666
3.307189138830738
2.6339134382131846
1.5612494995995996
1.5612494995995996
2.6339134382131846
3.307189138830738
3.799671038392666
4.175823272122517
4.4651427748729375
4.683748498798798
4.841229182759271
4.943429983321297
4.993746088859544
4.993746088859544
4.943429983321297
4.841229182759271
4.683748498798798
4.4651427748729375
4.175823272122517
3.799671038392666
3.307189138830738
2.6339134382131846
1.5612494995995996
1.5612494995995996
2.6339134382131846
3.307189138830738
3.799671038392666
4.175823272122517
4.4651427748729375
4.683748498798798
4.841229182759271
4.943429983321297
4.993746088859544
4.993746088859544
4.943429983321297
4.841229182759271
4.683748498798798
4.4651427748729375
4.175823272122517
3.799671038392666
3.307189138830738
2.6339134382131846
1.5612494995995996
1.5612494995995996
2.6339134382131846
3.307189138830738
3.799671038392666
4.175823272122517
4.4651427748729375
4.683748498798798
4.841229182759271
4.943429983321297
4.993746088859544
4.993746088859544
4.943429983321297
4.841229182759271
4.683748498798798
4.4651427748729375
4.175823272122517
3.799671038392666
3.307189138830738
2.6339134382131846
1.5612494995995996
1.5612494995995996
2.6339134382131846
3.307189138830738
3.799671038392666
4.175823272122517
4.4651427748729375
4.683748498798798
4.841229182759271
4.943429983321297
4.993746088859544
4.993746088859544
4.943429983321297
4.841229182759271
4.683748498798798
4.4651427748729375
4.175823272122517
3.799671038392666
3.307189138830738
2.6339134382131846
1.5612494995995996
1.5612494995995996
2.6339134382131846
3.307189138830738
3.799671038392666
4.175823272122517
4.4651427748729375
4.683748498798798
4.841229182759271
4.943429983321297
4.993746088859544
4.993746088859544
4.943429983321297
4.841229182759271
4.683748498798798
4.4651427748729375
4.175823272122517
3.799671038392666
3.307189138830738
2.6339134382131846
1.5612494995995996
1.5612494995995996
2.6339134382131846
3.307189138830738
3.799671038392666
4.175823272122517
4.4651427748729375
4.683748498798798
4.841229182759271
4.943429983321297
4.993746088859544
4.993746088859544
4.943429983321297
4.841229182759271
4.683748498798798
4.4651427748729375
4.175823272122517
3.799671038392666
3.307189138830738
2.6339134382131846
1.5612494995995996
1.5612494995995996
2.6339134382131846
3.307189138830738
3.799671038392666
4.175823272122517
4.4651427748729375
4.683748498798798
4.841229182759271
4.943429983321297
4.993746088859544
4.993746088859544
4.943429983321297
4.841229182759271
4.683748498798798
4.4651427748729375
4.175823272122517
3.799671038392666
3.307189138830738
2.6339134382131846
1.5612494995995996
1.5612494995995996
2.6339134382131846
3.307189138830738
3.799671038392666
4.175823272122517
4.4651427748729375
4.683748498798798
4.841229182759271
4.943429983321297
4.993746088859544
4.993746088859544
4.943429983321297
4.841229182759271
4.683748498798798
4.4651427748729375
4.175823272122517
3.799671038392666
3.307189138830738
2.6339134382131846
1.5612494995995996
1.5612494995995996
2.6339134382131846
3.307189138830738
3.799671038392666
4.175823272122517
4.4651427748729375
4.683748498798798
4.841229182759271
4.943429983321297
4.993746088859544
4.993746088859544
4.943429983321297
4.841229182759271
4.683748498798798
4.4651427748729375
4.175823272122517
3.799671038392666
3.307189138830738
2.6339134382131846
1.5612494995995996
1.5612494995995996
2.6339134382131846
3.307189138830738
3.799671038392666
4.175823272122517
4.4651427748729375
4.683748498798798
4.841229182759271
4.943429983321297
4.993746088859544
4.993746088859544
4.943429983321297
4.841229182759271
4.683748498798798
4.4651427748729375
4.175823272122517
3.799671038392666
3.307189138830738
2.6339134382131846
1.5612494995995996
1.5612494995995996
2.6339134382131846
3.307189138830738
3.799671038392666
4.175823272122517
4.4651427748729375
4.683748498798798
4.841229182759271
4.943429983321297
4.993746088859544
4.993746088859544
4.943429983321297
4.841229182759271
4.683748498798798
4.4651427748729375
4.175823272122517
3.799671038392666
3.307189138830738
2.6339134382131846
1.5612494995995996
1.5612494995995996
2.6339134382131846
3.307189138830738
3.799671038392666
4.175823272122517
4.4651427748729375
4.683748498798798
4.841229182759271
4.943429983321297
4.993746088859544
4.993746088859544
4.943429983321297
4.841229182759271
4.683748498798798
4.4651427748729375
4.175823272122517
3.799671038392666
3.307189138830738
2.6339134382131846
1.5612494995995996
1.5612494995995996
2.6339134382131846
3.307189138830738
3.799671038392666
4.175823272122517
4.4651427748729375
4.683748498798798
4.841229182759271
4.943429983321297
4.993746088859544
4.993746088859544
4.943429983321297
4.841229182759271
4.683748498798798
4.4651427748729375
4.175823272122517
3.799671038392666
3.307189138830738
2.6339134382131846
1.5612494995995996
1.5612494995995996
2.6339134382131846
3.307189138830738
3.799671038392666
4.175823272122517
4.4651427748729375
4.683748498798798
4.841229182759271
4.943429983321297
4.993746088859544
4.993746088859544
4.943429983321297
4.841229182759271
4.683748498798798
4.4651427748729375
4.175823272122517
3.799671038392666
3.307189138830738
2.6339134382131846
1.5612494995995996
1.5612494995995996
2.6339134382131846
3.307189138830738
3.799671038392666
4.175823272122517
4.4651427748729375
4.683748498798798
4.841229182759271
4.943429983321297
4.993746088859544
4.993746088859544
4.943429983321297
4.841229182759271
4.683748498798798
4.4651427748729375
4.175823272122517
3.799671038392666
3.307189138830738
2.6339134382131846
1.5612494995995996
1.5612494995995996
2.6339134382131846
3.307189138830738
3.799671038392666
4.175823272122517
4.4651427748729375
4.683748498798798
4.841229182759271
4.943429983321297
4.993746088859544
4.993746088859544
4.943429983321297
4.841229182759271
4.683748498798798
4.4651427748729375
4.175823272122517
3.799671038392666
3.307189138830738
2.6339134382131846
1.5612494995995996
1.5612494995995996
2.6339134382131846
3.307189138830738
3.799671038392666
4.175823272122517
4.4651427748729375
4.683748498798798
4.841229182759271
4.943429983321297
4.993746088859544
4.993746088859544
4.943429983321297
4.841229182759271
4.683748498798798
4.4651427748729375
4.175823272122517
3.799671038392666
3.307189138830738
2.6339134382131846
1.5612494995995996
1.5612494995995996
2.6339134382131846
3.307189138830738
3.799671038392666
4.175823272122517
4.4651427748729375
4.683748498798798
4.841229182759271
4.943429983321297
4.993746088859544
4.993746088859544
4.943429983321297
4.841229182759271
4.683748498798798
4.4651427748729375
4.175823272122517
3.799671038392666
3.307189138830738
2.6339134382131846
1.5612494995995996
1.5612494995995996
2.6339134382131846
3.307189138830738
3.799671038392666
4.175823272122517
4.4651427748729375
4.683748498798798
4.841229182759271
4.943429983321297